 # Si with diamond structure oriented X=[100] Y=[010] Z=[001].
  
         864  atoms
           1  atom types
 
      0.000000000000      32.574000000000  xlo xhi
      0.000000000000      32.574000000000  ylo yhi
      0.000000000000      16.287000000000  zlo zhi
 
Masses
 
            1   28.08500000             # Si
 
Atoms # atomic
 
         1    1        0.000000000000       0.000000000000       0.000000000000
         2    1        2.714500000000       2.714500000000       0.000000000000
         3    1        0.000000000000       2.714500000000       2.714500000000
         4    1        2.714500000000       0.000000000000       2.714500000000
         5    1        1.357250000000       1.357250000000       1.357250000000
         6    1        4.071750000000       4.071750000000       1.357250000000
         7    1        4.071750000000       1.357250000000       4.071750000000
         8    1        1.357250000000       4.071750000000       4.071750000000
         9    1        5.429000000000       0.000000000000       0.000000000000
        10    1        8.143500000000       2.714500000000       0.000000000000
        11    1        5.429000000000       2.714500000000       2.714500000000
        12    1        8.143500000000       0.000000000000       2.714500000000
        13    1        6.786250000000       1.357250000000       1.357250000000
        14    1        9.500750000000       4.071750000000       1.357250000000
        15    1        9.500750000000       1.357250000000       4.071750000000
        16    1        6.786250000000       4.071750000000       4.071750000000
        17    1       10.858000000000       0.000000000000       0.000000000000
        18    1       13.572500000000       2.714500000000       0.000000000000
        19    1       10.858000000000       2.714500000000       2.714500000000
        20    1       13.572500000000       0.000000000000       2.714500000000
        21    1       12.215250000000       1.357250000000       1.357250000000
        22    1       14.929750000000       4.071750000000       1.357250000000
        23    1       14.929750000000       1.357250000000       4.071750000000
        24    1       12.215250000000       4.071750000000       4.071750000000
        25    1       16.287000000000       0.000000000000       0.000000000000
        26    1       19.001500000000       2.714500000000       0.000000000000
        27    1       16.287000000000       2.714500000000       2.714500000000
        28    1       19.001500000000       0.000000000000       2.714500000000
        29    1       17.644250000000       1.357250000000       1.357250000000
        30    1       20.358750000000       4.071750000000       1.357250000000
        31    1       20.358750000000       1.357250000000       4.071750000000
        32    1       17.644250000000       4.071750000000       4.071750000000
        33    1       21.716000000000       0.000000000000       0.000000000000
        34    1       24.430500000000       2.714500000000       0.000000000000
        35    1       21.716000000000       2.714500000000       2.714500000000
        36    1       24.430500000000       0.000000000000       2.714500000000
        37    1       23.073250000000       1.357250000000       1.357250000000
        38    1       25.787750000000       4.071750000000       1.357250000000
        39    1       25.787750000000       1.357250000000       4.071750000000
        40    1       23.073250000000       4.071750000000       4.071750000000
        41    1       27.145000000000       0.000000000000       0.000000000000
        42    1       29.859500000000       2.714500000000       0.000000000000
        43    1       27.145000000000       2.714500000000       2.714500000000
        44    1       29.859500000000       0.000000000000       2.714500000000
        45    1       28.502250000000       1.357250000000       1.357250000000
        46    1       31.216750000000       4.071750000000       1.357250000000
        47    1       31.216750000000       1.357250000000       4.071750000000
        48    1       28.502250000000       4.071750000000       4.071750000000
        49    1        0.000000000000       5.429000000000       0.000000000000
        50    1        2.714500000000       8.143500000000       0.000000000000
        51    1        0.000000000000       8.143500000000       2.714500000000
        52    1        2.714500000000       5.429000000000       2.714500000000
        53    1        1.357250000000       6.786250000000       1.357250000000
        54    1        4.071750000000       9.500750000000       1.357250000000
        55    1        4.071750000000       6.786250000000       4.071750000000
        56    1        1.357250000000       9.500750000000       4.071750000000
        57    1        5.429000000000       5.429000000000       0.000000000000
        58    1        8.143500000000       8.143500000000       0.000000000000
        59    1        5.429000000000       8.143500000000       2.714500000000
        60    1        8.143500000000       5.429000000000       2.714500000000
        61    1        6.786250000000       6.786250000000       1.357250000000
        62    1        9.500750000000       9.500750000000       1.357250000000
        63    1        9.500750000000       6.786250000000       4.071750000000
        64    1        6.786250000000       9.500750000000       4.071750000000
        65    1       10.858000000000       5.429000000000       0.000000000000
        66    1       13.572500000000       8.143500000000       0.000000000000
        67    1       10.858000000000       8.143500000000       2.714500000000
        68    1       13.572500000000       5.429000000000       2.714500000000
        69    1       12.215250000000       6.786250000000       1.357250000000
        70    1       14.929750000000       9.500750000000       1.357250000000
        71    1       14.929750000000       6.786250000000       4.071750000000
        72    1       12.215250000000       9.500750000000       4.071750000000
        73    1       16.287000000000       5.429000000000       0.000000000000
        74    1       19.001500000000       8.143500000000       0.000000000000
        75    1       16.287000000000       8.143500000000       2.714500000000
        76    1       19.001500000000       5.429000000000       2.714500000000
        77    1       17.644250000000       6.786250000000       1.357250000000
        78    1       20.358750000000       9.500750000000       1.357250000000
        79    1       20.358750000000       6.786250000000       4.071750000000
        80    1       17.644250000000       9.500750000000       4.071750000000
        81    1       21.716000000000       5.429000000000       0.000000000000
        82    1       24.430500000000       8.143500000000       0.000000000000
        83    1       21.716000000000       8.143500000000       2.714500000000
        84    1       24.430500000000       5.429000000000       2.714500000000
        85    1       23.073250000000       6.786250000000       1.357250000000
        86    1       25.787750000000       9.500750000000       1.357250000000
        87    1       25.787750000000       6.786250000000       4.071750000000
        88    1       23.073250000000       9.500750000000       4.071750000000
        89    1       27.145000000000       5.429000000000       0.000000000000
        90    1       29.859500000000       8.143500000000       0.000000000000
        91    1       27.145000000000       8.143500000000       2.714500000000
        92    1       29.859500000000       5.429000000000       2.714500000000
        93    1       28.502250000000       6.786250000000       1.357250000000
        94    1       31.216750000000       9.500750000000       1.357250000000
        95    1       31.216750000000       6.786250000000       4.071750000000
        96    1       28.502250000000       9.500750000000       4.071750000000
        97    1        0.000000000000      10.858000000000       0.000000000000
        98    1        2.714500000000      13.572500000000       0.000000000000
        99    1        0.000000000000      13.572500000000       2.714500000000
       100    1        2.714500000000      10.858000000000       2.714500000000
       101    1        1.357250000000      12.215250000000       1.357250000000
       102    1        4.071750000000      14.929750000000       1.357250000000
       103    1        4.071750000000      12.215250000000       4.071750000000
       104    1        1.357250000000      14.929750000000       4.071750000000
       105    1        5.429000000000      10.858000000000       0.000000000000
       106    1        8.143500000000      13.572500000000       0.000000000000
       107    1        5.429000000000      13.572500000000       2.714500000000
       108    1        8.143500000000      10.858000000000       2.714500000000
       109    1        6.786250000000      12.215250000000       1.357250000000
       110    1        9.500750000000      14.929750000000       1.357250000000
       111    1        9.500750000000      12.215250000000       4.071750000000
       112    1        6.786250000000      14.929750000000       4.071750000000
       113    1       10.858000000000      10.858000000000       0.000000000000
       114    1       13.572500000000      13.572500000000       0.000000000000
       115    1       10.858000000000      13.572500000000       2.714500000000
       116    1       13.572500000000      10.858000000000       2.714500000000
       117    1       12.215250000000      12.215250000000       1.357250000000
       118    1       14.929750000000      14.929750000000       1.357250000000
       119    1       14.929750000000      12.215250000000       4.071750000000
       120    1       12.215250000000      14.929750000000       4.071750000000
       121    1       16.287000000000      10.858000000000       0.000000000000
       122    1       19.001500000000      13.572500000000       0.000000000000
       123    1       16.287000000000      13.572500000000       2.714500000000
       124    1       19.001500000000      10.858000000000       2.714500000000
       125    1       17.644250000000      12.215250000000       1.357250000000
       126    1       20.358750000000      14.929750000000       1.357250000000
       127    1       20.358750000000      12.215250000000       4.071750000000
       128    1       17.644250000000      14.929750000000       4.071750000000
       129    1       21.716000000000      10.858000000000       0.000000000000
       130    1       24.430500000000      13.572500000000       0.000000000000
       131    1       21.716000000000      13.572500000000       2.714500000000
       132    1       24.430500000000      10.858000000000       2.714500000000
       133    1       23.073250000000      12.215250000000       1.357250000000
       134    1       25.787750000000      14.929750000000       1.357250000000
       135    1       25.787750000000      12.215250000000       4.071750000000
       136    1       23.073250000000      14.929750000000       4.071750000000
       137    1       27.145000000000      10.858000000000       0.000000000000
       138    1       29.859500000000      13.572500000000       0.000000000000
       139    1       27.145000000000      13.572500000000       2.714500000000
       140    1       29.859500000000      10.858000000000       2.714500000000
       141    1       28.502250000000      12.215250000000       1.357250000000
       142    1       31.216750000000      14.929750000000       1.357250000000
       143    1       31.216750000000      12.215250000000       4.071750000000
       144    1       28.502250000000      14.929750000000       4.071750000000
       145    1        0.000000000000      16.287000000000       0.000000000000
       146    1        2.714500000000      19.001500000000       0.000000000000
       147    1        0.000000000000      19.001500000000       2.714500000000
       148    1        2.714500000000      16.287000000000       2.714500000000
       149    1        1.357250000000      17.644250000000       1.357250000000
       150    1        4.071750000000      20.358750000000       1.357250000000
       151    1        4.071750000000      17.644250000000       4.071750000000
       152    1        1.357250000000      20.358750000000       4.071750000000
       153    1        5.429000000000      16.287000000000       0.000000000000
       154    1        8.143500000000      19.001500000000       0.000000000000
       155    1        5.429000000000      19.001500000000       2.714500000000
       156    1        8.143500000000      16.287000000000       2.714500000000
       157    1        6.786250000000      17.644250000000       1.357250000000
       158    1        9.500750000000      20.358750000000       1.357250000000
       159    1        9.500750000000      17.644250000000       4.071750000000
       160    1        6.786250000000      20.358750000000       4.071750000000
       161    1       10.858000000000      16.287000000000       0.000000000000
       162    1       13.572500000000      19.001500000000       0.000000000000
       163    1       10.858000000000      19.001500000000       2.714500000000
       164    1       13.572500000000      16.287000000000       2.714500000000
       165    1       12.215250000000      17.644250000000       1.357250000000
       166    1       14.929750000000      20.358750000000       1.357250000000
       167    1       14.929750000000      17.644250000000       4.071750000000
       168    1       12.215250000000      20.358750000000       4.071750000000
       169    1       16.287000000000      16.287000000000       0.000000000000
       170    1       19.001500000000      19.001500000000       0.000000000000
       171    1       16.287000000000      19.001500000000       2.714500000000
       172    1       19.001500000000      16.287000000000       2.714500000000
       173    1       17.644250000000      17.644250000000       1.357250000000
       174    1       20.358750000000      20.358750000000       1.357250000000
       175    1       20.358750000000      17.644250000000       4.071750000000
       176    1       17.644250000000      20.358750000000       4.071750000000
       177    1       21.716000000000      16.287000000000       0.000000000000
       178    1       24.430500000000      19.001500000000       0.000000000000
       179    1       21.716000000000      19.001500000000       2.714500000000
       180    1       24.430500000000      16.287000000000       2.714500000000
       181    1       23.073250000000      17.644250000000       1.357250000000
       182    1       25.787750000000      20.358750000000       1.357250000000
       183    1       25.787750000000      17.644250000000       4.071750000000
       184    1       23.073250000000      20.358750000000       4.071750000000
       185    1       27.145000000000      16.287000000000       0.000000000000
       186    1       29.859500000000      19.001500000000       0.000000000000
       187    1       27.145000000000      19.001500000000       2.714500000000
       188    1       29.859500000000      16.287000000000       2.714500000000
       189    1       28.502250000000      17.644250000000       1.357250000000
       190    1       31.216750000000      20.358750000000       1.357250000000
       191    1       31.216750000000      17.644250000000       4.071750000000
       192    1       28.502250000000      20.358750000000       4.071750000000
       193    1        0.000000000000      21.716000000000       0.000000000000
       194    1        2.714500000000      24.430500000000       0.000000000000
       195    1        0.000000000000      24.430500000000       2.714500000000
       196    1        2.714500000000      21.716000000000       2.714500000000
       197    1        1.357250000000      23.073250000000       1.357250000000
       198    1        4.071750000000      25.787750000000       1.357250000000
       199    1        4.071750000000      23.073250000000       4.071750000000
       200    1        1.357250000000      25.787750000000       4.071750000000
       201    1        5.429000000000      21.716000000000       0.000000000000
       202    1        8.143500000000      24.430500000000       0.000000000000
       203    1        5.429000000000      24.430500000000       2.714500000000
       204    1        8.143500000000      21.716000000000       2.714500000000
       205    1        6.786250000000      23.073250000000       1.357250000000
       206    1        9.500750000000      25.787750000000       1.357250000000
       207    1        9.500750000000      23.073250000000       4.071750000000
       208    1        6.786250000000      25.787750000000       4.071750000000
       209    1       10.858000000000      21.716000000000       0.000000000000
       210    1       13.572500000000      24.430500000000       0.000000000000
       211    1       10.858000000000      24.430500000000       2.714500000000
       212    1       13.572500000000      21.716000000000       2.714500000000
       213    1       12.215250000000      23.073250000000       1.357250000000
       214    1       14.929750000000      25.787750000000       1.357250000000
       215    1       14.929750000000      23.073250000000       4.071750000000
       216    1       12.215250000000      25.787750000000       4.071750000000
       217    1       16.287000000000      21.716000000000       0.000000000000
       218    1       19.001500000000      24.430500000000       0.000000000000
       219    1       16.287000000000      24.430500000000       2.714500000000
       220    1       19.001500000000      21.716000000000       2.714500000000
       221    1       17.644250000000      23.073250000000       1.357250000000
       222    1       20.358750000000      25.787750000000       1.357250000000
       223    1       20.358750000000      23.073250000000       4.071750000000
       224    1       17.644250000000      25.787750000000       4.071750000000
       225    1       21.716000000000      21.716000000000       0.000000000000
       226    1       24.430500000000      24.430500000000       0.000000000000
       227    1       21.716000000000      24.430500000000       2.714500000000
       228    1       24.430500000000      21.716000000000       2.714500000000
       229    1       23.073250000000      23.073250000000       1.357250000000
       230    1       25.787750000000      25.787750000000       1.357250000000
       231    1       25.787750000000      23.073250000000       4.071750000000
       232    1       23.073250000000      25.787750000000       4.071750000000
       233    1       27.145000000000      21.716000000000       0.000000000000
       234    1       29.859500000000      24.430500000000       0.000000000000
       235    1       27.145000000000      24.430500000000       2.714500000000
       236    1       29.859500000000      21.716000000000       2.714500000000
       237    1       28.502250000000      23.073250000000       1.357250000000
       238    1       31.216750000000      25.787750000000       1.357250000000
       239    1       31.216750000000      23.073250000000       4.071750000000
       240    1       28.502250000000      25.787750000000       4.071750000000
       241    1        0.000000000000      27.145000000000       0.000000000000
       242    1        2.714500000000      29.859500000000       0.000000000000
       243    1        0.000000000000      29.859500000000       2.714500000000
       244    1        2.714500000000      27.145000000000       2.714500000000
       245    1        1.357250000000      28.502250000000       1.357250000000
       246    1        4.071750000000      31.216750000000       1.357250000000
       247    1        4.071750000000      28.502250000000       4.071750000000
       248    1        1.357250000000      31.216750000000       4.071750000000
       249    1        5.429000000000      27.145000000000       0.000000000000
       250    1        8.143500000000      29.859500000000       0.000000000000
       251    1        5.429000000000      29.859500000000       2.714500000000
       252    1        8.143500000000      27.145000000000       2.714500000000
       253    1        6.786250000000      28.502250000000       1.357250000000
       254    1        9.500750000000      31.216750000000       1.357250000000
       255    1        9.500750000000      28.502250000000       4.071750000000
       256    1        6.786250000000      31.216750000000       4.071750000000
       257    1       10.858000000000      27.145000000000       0.000000000000
       258    1       13.572500000000      29.859500000000       0.000000000000
       259    1       10.858000000000      29.859500000000       2.714500000000
       260    1       13.572500000000      27.145000000000       2.714500000000
       261    1       12.215250000000      28.502250000000       1.357250000000
       262    1       14.929750000000      31.216750000000       1.357250000000
       263    1       14.929750000000      28.502250000000       4.071750000000
       264    1       12.215250000000      31.216750000000       4.071750000000
       265    1       16.287000000000      27.145000000000       0.000000000000
       266    1       19.001500000000      29.859500000000       0.000000000000
       267    1       16.287000000000      29.859500000000       2.714500000000
       268    1       19.001500000000      27.145000000000       2.714500000000
       269    1       17.644250000000      28.502250000000       1.357250000000
       270    1       20.358750000000      31.216750000000       1.357250000000
       271    1       20.358750000000      28.502250000000       4.071750000000
       272    1       17.644250000000      31.216750000000       4.071750000000
       273    1       21.716000000000      27.145000000000       0.000000000000
       274    1       24.430500000000      29.859500000000       0.000000000000
       275    1       21.716000000000      29.859500000000       2.714500000000
       276    1       24.430500000000      27.145000000000       2.714500000000
       277    1       23.073250000000      28.502250000000       1.357250000000
       278    1       25.787750000000      31.216750000000       1.357250000000
       279    1       25.787750000000      28.502250000000       4.071750000000
       280    1       23.073250000000      31.216750000000       4.071750000000
       281    1       27.145000000000      27.145000000000       0.000000000000
       282    1       29.859500000000      29.859500000000       0.000000000000
       283    1       27.145000000000      29.859500000000       2.714500000000
       284    1       29.859500000000      27.145000000000       2.714500000000
       285    1       28.502250000000      28.502250000000       1.357250000000
       286    1       31.216750000000      31.216750000000       1.357250000000
       287    1       31.216750000000      28.502250000000       4.071750000000
       288    1       28.502250000000      31.216750000000       4.071750000000
       289    1        0.000000000000       0.000000000000       5.429000000000
       290    1        2.714500000000       2.714500000000       5.429000000000
       291    1        0.000000000000       2.714500000000       8.143500000000
       292    1        2.714500000000       0.000000000000       8.143500000000
       293    1        1.357250000000       1.357250000000       6.786250000000
       294    1        4.071750000000       4.071750000000       6.786250000000
       295    1        4.071750000000       1.357250000000       9.500750000000
       296    1        1.357250000000       4.071750000000       9.500750000000
       297    1        5.429000000000       0.000000000000       5.429000000000
       298    1        8.143500000000       2.714500000000       5.429000000000
       299    1        5.429000000000       2.714500000000       8.143500000000
       300    1        8.143500000000       0.000000000000       8.143500000000
       301    1        6.786250000000       1.357250000000       6.786250000000
       302    1        9.500750000000       4.071750000000       6.786250000000
       303    1        9.500750000000       1.357250000000       9.500750000000
       304    1        6.786250000000       4.071750000000       9.500750000000
       305    1       10.858000000000       0.000000000000       5.429000000000
       306    1       13.572500000000       2.714500000000       5.429000000000
       307    1       10.858000000000       2.714500000000       8.143500000000
       308    1       13.572500000000       0.000000000000       8.143500000000
       309    1       12.215250000000       1.357250000000       6.786250000000
       310    1       14.929750000000       4.071750000000       6.786250000000
       311    1       14.929750000000       1.357250000000       9.500750000000
       312    1       12.215250000000       4.071750000000       9.500750000000
       313    1       16.287000000000       0.000000000000       5.429000000000
       314    1       19.001500000000       2.714500000000       5.429000000000
       315    1       16.287000000000       2.714500000000       8.143500000000
       316    1       19.001500000000       0.000000000000       8.143500000000
       317    1       17.644250000000       1.357250000000       6.786250000000
       318    1       20.358750000000       4.071750000000       6.786250000000
       319    1       20.358750000000       1.357250000000       9.500750000000
       320    1       17.644250000000       4.071750000000       9.500750000000
       321    1       21.716000000000       0.000000000000       5.429000000000
       322    1       24.430500000000       2.714500000000       5.429000000000
       323    1       21.716000000000       2.714500000000       8.143500000000
       324    1       24.430500000000       0.000000000000       8.143500000000
       325    1       23.073250000000       1.357250000000       6.786250000000
       326    1       25.787750000000       4.071750000000       6.786250000000
       327    1       25.787750000000       1.357250000000       9.500750000000
       328    1       23.073250000000       4.071750000000       9.500750000000
       329    1       27.145000000000       0.000000000000       5.429000000000
       330    1       29.859500000000       2.714500000000       5.429000000000
       331    1       27.145000000000       2.714500000000       8.143500000000
       332    1       29.859500000000       0.000000000000       8.143500000000
       333    1       28.502250000000       1.357250000000       6.786250000000
       334    1       31.216750000000       4.071750000000       6.786250000000
       335    1       31.216750000000       1.357250000000       9.500750000000
       336    1       28.502250000000       4.071750000000       9.500750000000
       337    1        0.000000000000       5.429000000000       5.429000000000
       338    1        2.714500000000       8.143500000000       5.429000000000
       339    1        0.000000000000       8.143500000000       8.143500000000
       340    1        2.714500000000       5.429000000000       8.143500000000
       341    1        1.357250000000       6.786250000000       6.786250000000
       342    1        4.071750000000       9.500750000000       6.786250000000
       343    1        4.071750000000       6.786250000000       9.500750000000
       344    1        1.357250000000       9.500750000000       9.500750000000
       345    1        5.429000000000       5.429000000000       5.429000000000
       346    1        8.143500000000       8.143500000000       5.429000000000
       347    1        5.429000000000       8.143500000000       8.143500000000
       348    1        8.143500000000       5.429000000000       8.143500000000
       349    1        6.786250000000       6.786250000000       6.786250000000
       350    1        9.500750000000       9.500750000000       6.786250000000
       351    1        9.500750000000       6.786250000000       9.500750000000
       352    1        6.786250000000       9.500750000000       9.500750000000
       353    1       10.858000000000       5.429000000000       5.429000000000
       354    1       13.572500000000       8.143500000000       5.429000000000
       355    1       10.858000000000       8.143500000000       8.143500000000
       356    1       13.572500000000       5.429000000000       8.143500000000
       357    1       12.215250000000       6.786250000000       6.786250000000
       358    1       14.929750000000       9.500750000000       6.786250000000
       359    1       14.929750000000       6.786250000000       9.500750000000
       360    1       12.215250000000       9.500750000000       9.500750000000
       361    1       16.287000000000       5.429000000000       5.429000000000
       362    1       19.001500000000       8.143500000000       5.429000000000
       363    1       16.287000000000       8.143500000000       8.143500000000
       364    1       19.001500000000       5.429000000000       8.143500000000
       365    1       17.644250000000       6.786250000000       6.786250000000
       366    1       20.358750000000       9.500750000000       6.786250000000
       367    1       20.358750000000       6.786250000000       9.500750000000
       368    1       17.644250000000       9.500750000000       9.500750000000
       369    1       21.716000000000       5.429000000000       5.429000000000
       370    1       24.430500000000       8.143500000000       5.429000000000